# vtk DataFile Version 3.0
fract_cells
ASCII
DATASET UNSTRUCTURED_GRID
POINTS 202818 double
-0.00282843 0 0
-0.00282138 0 -0.000282138
-0.00280056 0 -0.000560112
-0.00276686 0 -0.000830056
-0.00272166 0 -0.00108866
-0.00266667 0 -0.00133333
-0.00260378 0 -0.00156227
-0.0025349 0 -0.00177443
-0.00246183 0 -0.00196946
-0.0023862 0 -0.00214758
-0.0023094 0 -0.0023094
-0.00297318 0 0
-0.002965 0 -0.0002965
-0.00294086 0 -0.000588172
-0.0029019 0 -0.000870572
-0.00284988 0 -0.00113995
-0.00278693 0 -0.00139347
-0.00271538 0 -0.00162923
-0.00263752 0 -0.00184626
-0.00255551 0 -0.0020444
-0.00247121 0 -0.00222409
-0.0023862 0 -0.0023862
-0.00312348 0 0
-0.003114 0 -0.0003114
-0.00308607 0 -0.000617212
-0.00304114 0 -0.000912344
-0.00298142 0 -0.00119257
-0.00290957 0 -0.00145478
-0.00282843 0 -0.00169706
-0.00274076 0 -0.00191853
-0.00264906 0 -0.00211925
-0.00255551 0 -0.00229996
-0.00246183 0 -0.00246183
-0.00327693 0 0
-0.00326599 0 -0.000326599
-0.00323381 0 -0.00064676
-0.00318223 0 -0.000954668
-0.003114 0 -0.0012456
-0.00303239 0 -0.0015162
-0.00294086 0 -0.00176452
-0.00284268 0 -0.00198987
-0.00274076 0 -0.0021926
-0.00263752 0 -0.00237377
-0.0025349 0 -0.0025349
-0.00342997 0 0
-0.00341743 0 -0.000341743
-0.00338062 0 -0.000676124
-0.00332182 0 -0.000996544
-0.00324443 0 -0.00129777
-0.00315244 0 -0.00157622
-0.00304997 0 -0.00182998
-0.00294086 0 -0.0020586
-0.00282843 0 -0.00226274
-0.00271538 0 -0.00244384
-0.00260378 0 -0.00260378
-0.00357771 0 0
-0.00356348 0 -0.000356348
-0.0035218 0 -0.00070436
-0.00345547 0 -0.00103664
-0.00336861 0 -0.00134744
-0.00326599 0 -0.00163299
-0.00315244 0 -0.00189146
-0.00303239 0 -0.00212268
-0.00290957 0 -0.00232766
-0.00278693 0 -0.00250824
-0.00266667 0 -0.00266667
-0.00371391 0 0
-0.003698 0 -0.0003698
-0.00365148 0 -0.000730296
-0.00357771 0 -0.00107331
-0.00348155 0 -0.00139262
-0.00336861 0 -0.0016843
-0.00324443 0 -0.00194666
-0.003114 0 -0.0021798
-0.00298142 0 -0.00238514
-0.00284988 0 -0.00256489
-0.00272166 0 -0.00272166
-0.0038313 0 0
-0.00381385 0 -0.000381385
-0.00376288 0 -0.000752576
-0.0036823 0 -0.00110469
-0.00357771 0 -0.00143108
-0.00345547 0 -0.00172774
-0.00332182 0 -0.00199309
-0.00318223 0 -0.00222756
-0.00304114 0 -0.00243292
-0.0029019 0 -0.00261172
-0.00276686 0 -0.00276686
-0.00392232 0 0
-0.0039036 0 -0.00039036
-0.003849 0 -0.0007698
-0.00376288 0 -0.00112886
-0.00365148 0 -0.00146059
-0.0035218 0 -0.0017609
-0.00338062 0 -0.00202837
-0.00323381 0 -0.00226366
-0.00308607 0 -0.00246885
-0.00294086 0 -0.00264677
-0.00280056 0 -0.00280056
-0.00398015 0 0
-0.00396059 0 -0.000396059
-0.0039036 0 -0.00078072
-0.00381385 0 -0.00114416
-0.003698 0 -0.0014792
-0.00356348 0 -0.00178174
-0.00341743 0 -0.00205046
-0.00326599 0 -0.00228619
-0.003114 0 -0.0024912
-0.002965 0 -0.0026685
-0.00282138 0 -0.00282138
-0.004 0 0
-0.00398015 0 -0.000398015
-0.00392232 0 -0.000784464
-0.0038313 0 -0.00114939
-0.00371391 0 -0.00148556
-0.00357771 0 -0.00178886
-0.00342997 0 -0.00205798
-0.00327693 0 -0.00229385
-0.00312348 0 -0.00249878
-0.00297318 0 -0.00267586
-0.00282843 0 -0.00282843
-0.00214758 0 -0.0023862
-0.00222409 0 -0.00247121
-0.00229996 0 -0.00255551
-0.00237377 0 -0.00263752
-0.00244384 0 -0.00271538
-0.00250824 0 -0.00278693
-0.00256489 0 -0.00284988
-0.00261172 0 -0.0029019
-0.00264677 0 -0.00294086
-0.0026685 0 -0.002965
-0.00267586 0 -0.00297318
-0.00196946 0 -0.00246183
-0.0020444 0 -0.00255551
-0.00211925 0 -0.00264906
-0.0021926 0 -0.00274076
-0.00226274 0 -0.00282843
-0.00232766 0 -0.00290957
-0.00238514 0 -0.00298142
-0.00243292 0 -0.00304114
-0.00246885 0 -0.00308607
-0.0024912 0 -0.003114
-0.00249878 0 -0.00312348
-0.00177443 0 -0.0025349
-0.00184626 0 -0.00263752
-0.00191853 0 -0.00274076
-0.00198987 0 -0.00284268
-0.0020586 0 -0.00294086
-0.00212268 0 -0.00303239
-0.0021798 0 -0.003114
-0.00222756 0 -0.00318223
-0.00226366 0 -0.00323381
-0.00228619 0 -0.00326599
-0.00229385 0 -0.00327693
-0.00156227 0 -0.00260378
-0.00162923 0 -0.00271538
-0.00169706 0 -0.00282843
-0.00176452 0 -0.00294086
-0.00182998 0 -0.00304997
-0.00189146 0 -0.00315244
-0.00194666 0 -0.00324443
-0.00199309 0 -0.00332182
-0.00202837 0 -0.00338062
-0.00205046 0 -0.00341743
-0.00205798 0 -0.00342997
-0.00133333 0 -0.00266667
-0.00139347 0 -0.00278693
-0.00145478 0 -0.00290957
-0.0015162 0 -0.00303239
-0.00157622 0 -0.00315244
-0.00163299 0 -0.00326599
-0.0016843 0 -0.00336861
-0.00172774 0 -0.00345547
-0.0017609 0 -0.0035218
-0.00178174 0 -0.00356348
-0.00178886 0 -0.00357771
-0.00108866 0 -0.00272166
-0.00113995 0 -0.00284988
-0.00119257 0 -0.00298142
-0.0012456 0 -0.003114
-0.00129777 0 -0.00324443
-0.00134744 0 -0.00336861
-0.00139262 0 -0.00348155
-0.00143108 0 -0.00357771
-0.00146059 0 -0.00365148
-0.0014792 0 -0.003698
-0.00148556 0 -0.00371391
-0.000830056 0 -0.00276686
-0.000870572 0 -0.0029019
-0.000912344 0 -0.00304114
-0.000954668 0 -0.00318223
-0.000996544 0 -0.00332182
-0.00103664 0 -0.00345547
-0.00107331 0 -0.00357771
-0.00110469 0 -0.0036823
-0.00112886 0 -0.00376288
-0.00114416 0 -0.00381385
-0.00114939 0 -0.0038313
-0.000560112 0 -0.00280056
-0.000588172 0 -0.00294086
-0.000617212 0 -0.00308607
-0.00064676 0 -0.00323381
-0.000676124 0 -0.00338062
-0.00070436 0 -0.0035218
-0.000730296 0 -0.00365148
-0.000752576 0 -0.00376288
-0.0007698 0 -0.003849
-0.00078072 0 -0.0039036
-0.000784464 0 -0.00392232
-0.000282138 0 -0.00282138
-0.0002965 0 -0.002965
-0.0003114 0 -0.003114
-0.000326599 0 -0.00326599
-0.000341743 0 -0.00341743
-0.000356348 0 -0.00356348
-0.0003698 0 -0.003698
-0.000381385 0 -0.00381385
-0.00039036 0 -0.0039036
-0.000396059 0 -0.00396059
-0.000398015 0 -0.00398015
0 0 -0.00282843
0 0 -0.00297318
0 0 -0.00312348
0 0 -0.00327693
0 0 -0.00342997
0 0 -0.00357771
0 0 -0.00371391
0 0 -0.0038313
0 0 -0.00392232
0 0 -0.00398015
0 0 -0.004
-0.00267586 0 0
-0.00249878 0 0
-0.00229385 0 0
-0.00205798 0 0
-0.00178886 0 0
-0.00148556 0 0
-0.00114939 0 0
-0.000784464 0 0
-0.000398015 0 0
0 0 0
-0.0026685 0 -0.0002965
-0.0024912 0 -0.0003114
-0.00228619 0 -0.000326599
-0.00205046 0 -0.000341743
-0.00178174 0 -0.000356348
-0.0014792 0 -0.0003698
-0.00114416 0 -0.000381385
-0.00078072 0 -0.00039036
-0.000396059 0 -0.000396059
0 0 -0.000398015
-0.00264677 0 -0.000588172
-0.00246885 0 -0.000617212
-0.00226366 0 -0.00064676
-0.00202837 0 -0.000676124
-0.0017609 0 -0.00070436
-0.00146059 0 -0.000730296
-0.00112886 0 -0.000752576
-0.0007698 0 -0.0007698
-0.00039036 0 -0.00078072
0 0 -0.000784464
-0.00261172 0 -0.000870572
-0.00243292 0 -0.000912344
-0.00222756 0 -0.000954668
-0.00199309 0 -0.000996544
-0.00172774 0 -0.00103664
-0.00143108 0 -0.00107331
-0.00110469 0 -0.00110469
-0.000752576 0 -0.00112886
-0.000381385 0 -0.00114416
0 0 -0.00114939
-0.00256489 0 -0.00113995
-0.00238514 0 -0.00119257
-0.0021798 0 -0.0012456
-0.00194666 0 -0.00129777
-0.0016843 0 -0.00134744
-0.00139262 0 -0.00139262
-0.00107331 0 -0.00143108
-0.000730296 0 -0.00146059
-0.0003698 0 -0.0014792
0 0 -0.00148556
-0.00250824 0 -0.00139347
-0.00232766 0 -0.00145478
-0.00212268 0 -0.0015162
-0.00189146 0 -0.00157622
-0.00163299 0 -0.00163299
-0.00134744 0 -0.0016843
-0.00103664 0 -0.00172774
-0.00070436 0 -0.0017609
-0.000356348 0 -0.00178174
0 0 -0.00178886
-0.00244384 0 -0.00162923
-0.00226274 0 -0.00169706
-0.0020586 0 -0.00176452
-0.00182998 0 -0.00182998
-0.00157622 0 -0.00189146
-0.00129777 0 -0.00194666
-0.000996544 0 -0.00199309
-0.000676124 0 -0.00202837
-0.000341743 0 -0.00205046
0 0 -0.00205798
-0.00237377 0 -0.00184626
-0.0021926 0 -0.00191853
-0.00198987 0 -0.00198987
-0.00176452 0 -0.0020586
-0.0015162 0 -0.00212268
-0.0012456 0 -0.0021798
-0.000954668 0 -0.00222756
-0.00064676 0 -0.00226366
-0.000326599 0 -0.00228619
0 0 -0.00229385
-0.00229996 0 -0.0020444
-0.00211925 0 -0.00211925
-0.00191853 0 -0.0021926
-0.00169706 0 -0.00226274
-0.00145478 0 -0.00232766
-0.00119257 0 -0.00238514
-0.000912344 0 -0.00243292
-0.000617212 0 -0.00246885
-0.0003114 0 -0.0024912
0 0 -0.00249878
-0.00222409 0 -0.00222409
-0.0020444 0 -0.00229996
-0.00184626 0 -0.00237377
-0.00162923 0 -0.00244384
-0.00139347 0 -0.00250824
-0.00113995 0 -0.00256489
-0.000870572 0 -0.00261172
-0.000588172 0 -0.00264677
-0.0002965 0 -0.0026685
0 0 -0.00267586
0.00282843 0 0
0.00282138 0 -0.000282138
0.00280056 0 -0.000560112
0.00276686 0 -0.000830056
0.00272166 0 -0.00108866
0.00266667 0 -0.00133333
0.00260378 0 -0.00156227
0.0025349 0 -0.00177443
0.00246183 0 -0.00196946
0.0023862 0 -0.00214758
0.0023094 0 -0.0023094
0.00297318 0 0
0.002965 0 -0.0002965
0.00294086 0 -0.000588172
0.0029019 0 -0.000870572
0.00284988 0 -0.00113995
0.00278693 0 -0.00139347
0.00271538 0 -0.00162923
0.00263752 0 -0.00184626
0.00255551 0 -0.0020444
0.00247121 0 -0.00222409
0.0023862 0 -0.0023862
0.00312348 0 0
0.003114 0 -0.0003114
0.00308607 0 -0.000617212
0.00304114 0 -0.000912344
0.00298142 0 -0.00119257
0.00290957 0 -0.00145478
0.00282843 0 -0.00169706
0.00274076 0 -0.00191853
0.00264906 0 -0.00211925
0.00255551 0 -0.00229996
0.00246183 0 -0.00246183
0.00327693 0 0
0.00326599 0 -0.000326599
0.00323381 0 -0.00064676
0.00318223 0 -0.000954668
0.003114 0 -0.0012456
0.00303239 0 -0.0015162
0.00294086 0 -0.00176452
0.00284268 0 -0.00198987
0.00274076 0 -0.0021926
0.00263752 0 -0.00237377
0.0025349 0 -0.0025349
0.00342997 0 0
0.00341743 0 -0.000341743
0.00338062 0 -0.000676124
0.00332182 0 -0.000996544
0.00324443 0 -0.00129777
0.00315244 0 -0.00157622
0.00304997 0 -0.00182998
0.00294086 0 -0.0020586
0.00282843 0 -0.00226274
0.00271538 0 -0.00244384
0.00260378 0 -0.00260378
0.00357771 0 0
0.00356348 0 -0.000356348
0.0035218 0 -0.00070436
0.00345547 0 -0.00103664
0.00336861 0 -0.00134744
0.00326599 0 -0.00163299
0.00315244 0 -0.00189146
0.00303239 0 -0.00212268
0.00290957 0 -0.00232766
0.00278693 0 -0.00250824
0.00266667 0 -0.00266667
0.00371391 0 0
0.003698 0 -0.0003698
0.00365148 0 -0.000730296
0.00357771 0 -0.00107331
0.00348155 0 -0.00139262
0.00336861 0 -0.0016843
0.00324443 0 -0.00194666
0.003114 0 -0.0021798
[...]
CELL_DATA 1640
SCALARS un_fract_value float 1
LOOKUP_TABLE default
0.969348
0.969346
0.969343
0.969338
0.969333
0.969327
0.969321
0.969315
0.96931
0.969305
0.9693
0.969295
0.969289
0.969283
0.969277
0.969272
0.969266
0.969262
0.969258
0.969256
0.969348
0.969346
0.969343
0.969338
0.969333
0.969327
0.969321
0.969315
0.96931
0.969305
0.9693
0.969295
0.969289
0.969283
0.969277
0.969272
0.969266
0.969262
0.969258
0.969256
0.969348
0.969346
0.969343
0.969338
0.969333
0.969327
0.969321
0.969315
0.96931
0.969305
0.9693
0.969295
0.969289
0.969283
0.969277
0.969272
0.969266
0.969262
0.969258
0.969256
0.969348
0.969346
0.969343
0.969338
0.969333
0.969327
0.969321
0.969315
0.96931
0.969305
0.9693
0.969295
0.969289
0.969283
0.969277
0.969272
0.969266
0.969262
0.969258
0.969256
0.969794
0.969784
0.969764
0.969737
0.969705
0.969671
0.969636
0.969602
0.96957
0.96954
0.969512
0.969482
0.96945
0.969416
0.969381
0.969346
0.969314
0.969287
0.969268
0.969257
0.969794
0.969784
0.969764
0.969737
0.969705
0.969671
0.969636
0.969602
0.96957
0.96954
0.969512
0.969482
0.96945
0.969416
0.969381
0.969346
0.969314
0.969287
0.969268
0.969257
0.969794
0.969784
0.969764
0.969737
0.969705
0.969671
0.969636
0.969602
0.96957
0.96954
0.969512
0.969482
0.96945
0.969416
0.969381
0.969346
0.969314
0.969287
0.969268
0.969257
0.969794
0.969784
0.969764
0.969737
0.969705
0.969671
0.969636
0.969602
0.96957
0.96954
0.969512
0.969482
0.96945
0.969416
0.969381
0.969346
0.969314
0.969287
0.969268
0.969257
0.970613
0.970587
0.970537
0.970469
0.970388
0.970302
0.970214
0.970128
0.970047
0.969972
0.969901
0.969826
0.969744
0.969659
0.96957
0.969484
0.969403
0.969335
0.969285
0.969259
0.970613
0.970587
0.970537
0.970469
0.970388
0.970302
0.970214
0.970128
0.970047
0.969972
0.969901
0.969826
0.969744
0.969659
0.96957
0.969484
0.969403
0.969335
0.969285
0.969259
0.970613
0.970587
0.970537
0.970469
0.970388
0.970302
0.970214
0.970128
0.970047
0.969972
0.969901
0.969826
0.969744
0.969659
0.96957
0.969484
0.969403
0.969335
0.969285
0.969259
0.970613
0.970587
0.970537
0.970469
0.970388
0.970302
0.970214
0.970128
0.970047
0.969972
0.969901
0.969826
0.969744
0.969659
0.96957
0.969484
0.969403
0.969335
0.969285
0.969259
0.971807
0.971758
0.971664
0.971536
0.971384
0.971221
0.971056
0.970895
0.970742
0.970602
0.970467
0.970326
0.970173
0.970012
0.969847
0.969684
0.969533
0.969405
0.969311
0.969262
0.971807
0.971758
0.971664
0.971536
0.971384
0.971221
0.971056
0.970895
0.970742
0.970602
0.970467
0.970326
0.970173
0.970012
0.969847
0.969684
0.969533
0.969405
0.969311
0.969262
0.971807
0.971758
0.971664
0.971536
0.971384
0.971221
0.971056
0.970895
0.970742
0.970602
0.970467
0.970326
0.970173
0.970012
0.969847
0.969684
0.969533
0.969405
0.969311
0.969262
0.971807
0.971758
0.971664
0.971536
0.971384
0.971221
0.971056
0.970895
0.970742
0.970602
0.970467
0.970326
0.970173
0.970012
0.969847
0.969684
0.969533
0.969405
0.969311
0.969262
0.973381
0.9733
0.973149
0.972941
0.972696
0.972432
0.972164
0.971903
0.971657
0.971429
0.971211
0.970984
0.970737
0.970477
0.970209
0.969946
0.969703
0.969496
0.969345
0.969266
0.973381
0.9733
0.973149
0.972941
0.972696
0.972432
0.972164
0.971903
0.971657
0.971429
0.971211
0.970984
0.970737
0.970477
0.970209
0.969946
0.969703
0.969496
0.969345
0.969266
0.973381
0.9733
0.973149
0.972941
0.972696
0.972432
0.972164
0.971903
0.971657
0.971429
0.971211
0.970984
0.970737
0.970477
0.970209
0.969946
0.969703
0.969496
0.969345
0.969266
0.973381
0.9733
0.973149
0.972941
0.972696
0.972432
0.972164
0.971903
0.971657
0.971429
0.971211
0.970984
0.970737
0.970477
0.970209
0.969946
0.969703
0.969496
0.969345
0.969266
0.975339
0.97522
0.974996
0.974689
0.974327
0.973937
0.973541
0.973156
0.972792
0.972457
0.972136
0.9718
0.971437
0.971053
0.970659
0.970272
0.969913
0.969609
0.969388
0.96927
0.975339
0.97522
0.974996
0.974689
0.974327
0.973937
0.973541
0.973156
0.972792
0.972457
0.972136
0.9718
0.971437
0.971053
0.970659
0.970272
0.969913
0.969609
0.969388
0.96927
0.975339
0.97522
0.974996
0.974689
0.974327
0.973937
0.973541
0.973156
0.972792
0.972457
0.972136
0.9718
0.971437
0.971053
0.970659
0.970272
0.969913
0.969609
0.969388
0.96927
0.975339
0.97522
0.974996
0.974689
0.974327
0.973937
0.973541
0.973156
0.972792
0.972457
0.972136
0.9718
0.971437
0.971053
0.970659
0.970272
0.969913
0.969609
0.969388
0.96927
0.97769
0.977525
0.977212
0.976785
0.976282
0.97574
0.97519
0.974656
0.974152
0.973686
0.973241
0.972775
0.972272
0.971741
0.971196
0.97066
0.970164
0.969745
0.969438
0.969276
0.97769
0.977525
0.977212
0.976785
0.976282
0.97574
0.97519
0.974656
0.974152
0.973686
0.973241
0.972775
0.972272
0.971741
0.971196
0.97066
0.970164
0.969745
0.969438
0.969276
0.97769
0.977525
0.977212
0.976785
0.976282
0.97574
0.97519
0.974656
0.974152
0.973686
0.973241
0.972775
0.972272
0.971741
0.971196
0.97066
0.970164
0.969745
0.969438
0.969276
0.97769
0.977525
0.977212
0.976785
0.976282
0.97574
0.97519
0.974656
0.974152
0.973686
0.973241
0.972775
0.972272
0.971741
0.971196
0.97066
0.970164
0.969745
0.969438
0.969276
0.980441
0.980221
0.979805
0.979236
0.978567
0.977847
0.977116
0.976406
0.975737
0.975119
0.974529
0.973912
0.973245
0.972542
0.97182
0.971112
0.970456
0.969902
0.969497
0.969283
0.980441
0.980221
0.979805
0.979236
0.978567
0.977847
0.977116
0.976406
0.975737
0.975119
0.974529
0.973912
0.973245
0.972542
0.97182
0.971112
0.970456
0.969902
0.969497
0.969283
0.980441
0.980221
0.979805
0.979236
0.978567
0.977847
0.977116
0.976406
0.975737
0.975119
0.974529
0.973912
0.973245
0.972542
0.97182
0.971112
0.970456
0.969902
0.969497
0.969283
0.980441
0.980221
0.979805
0.979236
0.978567
0.977847
0.977116
0.976406
0.975737
0.975119
0.974529
0.973912
0.973245
0.972542
0.97182
0.971112
0.970456
0.969902
0.969497
0.969283
0.983602
0.983318
0.982782
0.982051
0.981189
0.980262
0.979323
0.978411
0.977552
0.976759
0.976002
0.975211
0.974357
0.973456
0.972533
0.971627
0.970789
0.97008
0.969563
0.96929
0.983602
0.983318
0.982782
0.982051
0.981189
0.980262
0.979323
0.978411
0.977552
0.976759
0.976002
0.975211
0.974357
0.973456
0.972533
0.971627
0.970789
0.97008
0.969563
0.96929
0.983602
0.983318
0.982782
0.982051
0.981189
0.980262
0.979323
0.978411
0.977552
0.976759
0.976002
0.975211
0.974357
0.973456
0.972533
0.971627
0.970789
0.97008
0.969563
0.96929
0.983602
0.983318
0.982782
0.982051
0.981189
0.980262
0.979323
0.978411
0.977552
0.976759
0.976002
0.975211
0.974357
0.973456
0.972533
0.971627
0.970789
0.97008
0.969563
0.96929
0.987234
0.987064
0.98674
0.986293
0.985757
0.985168
0.984557
0.983947
0.983356
0.982794
0.981436
0.979369
0.977426
0.975623
0.973979
0.972524
0.971291
0.970319
0.969644
0.969299
0.987234
0.987064
0.98674
0.986293
0.985757
0.985168
0.984557
0.983947
0.983356
0.982794
0.981436
0.979369
0.977426
0.975623
0.973979
0.972524
0.971291
0.970319
0.969644
0.969299
0.987234
0.987064
0.98674
0.986293
0.985757
0.985168
0.984557
0.983947
0.983356
0.982794
0.981436
0.979369
0.977426
0.975623
0.973979
0.972524
0.971291
0.970319
0.969644
0.969299
0.987234
0.987064
0.98674
0.986293
0.985757
0.985168
0.984557
0.983947
0.983356
0.982794
0.981436
0.979369
0.977426
0.975623
0.973979
0.972524
0.971291
0.970319
0.969644
0.969299
0.993413
0.993413
0.993413
0.993413
0.993413
0.993413
0.993413
0.993413
0.993413
0.993413
0.993413
0.993413
0.993413
0.993413
0.993413
0.993413
0.993413
0.993413
0.993413
0.993413
0.993413
0.993413
0.993413
0.993413
0.993413
0.993413
0.993413
0.993413
0.993413
0.993413
0.993413
0.993413
0.993413
0.993413
0.993413
0.993413
0.993413
0.993413
0.993413
0.993413
1.0031
1.0031
1.0031
1.0031
1.0031
1.0031
1.0031
1.0031
1.0031
1.0031
1.0031
1.0031
1.0031
1.0031
1.0031
1.0031
1.0031
1.0031
1.0031
1.0031
1.0031
1.0031
1.0031
1.0031
1.0031
1.0031
1.0031
1.0031
1.0031
1.0031
1.0031
1.0031
1.0031
1.0031
1.0031
1.0031
1.0031
1.0031
1.0031
1.0031
1.01471
1.01471
1.01471
1.01471
1.01471
1.01471
1.01471
1.01471
1.01471
1.01471
1.01471
1.01471
1.01471
1.01471
1.01471
1.01471
1.01471
1.01471
1.01471
1.01471
1.01471
1.01471
1.01471
1.01471
1.01471
1.01471
1.01471
1.01471
1.01471
1.01471
1.01471
1.01471
1.01471
1.01471
1.01471
1.01471
1.01471
1.01471
1.01471
1.01471
1.02844
1.02844
1.02844
1.02844
1.02844
1.02844
1.02844
1.02844
1.02844
1.02844
1.02844
1.02844
1.02844
1.02844
1.02844
1.02844
1.02844
1.02844
1.02844
1.02844
1.02844
1.02844
1.02844
1.02844
1.02844
1.02844
1.02844
1.02844
1.02844
1.02844
1.02844
1.02844
1.02844
1.02844
1.02844
1.02844
1.02844
1.02844
1.02844
1.02844
1.04452
1.04452
1.04452
1.04452
1.04452
1.04452
1.04452
1.04452
1.04452
1.04452
1.04452
1.04452
1.04452
1.04452
1.04452
1.04452
1.04452
1.04452
1.04452
1.04452
1.04452
1.04452
1.04452
1.04452
1.04452
1.04452
1.04452
1.04452
1.04452
1.04452
1.04452
1.04452
1.04452
1.04452
1.04452
1.04452
1.04452
1.04452
1.04452
1.04452
1.06326
1.06326
1.06326
1.06326
1.06326
1.06326
1.06326
1.06326
1.06326
1.06326
1.06326
1.06326
1.06326
1.06326
1.06326
1.06326
1.06326
1.06326
1.06326
1.06326
1.06326
1.06326
1.06326
1.06326
1.06326
1.06326
1.06326
1.06326
1.06326
1.06326
1.06326
1.06326
1.06326
1.06326
1.06326
1.06326
1.06326
1.06326
1.06326
1.06326
1.08505
1.08505
1.08505
1.08505
1.08505
1.08505
1.08505
1.08505
1.08505
1.08505
1.08505
1.08505
1.08505
1.08505
1.08505
1.08505
1.08505
1.08505
1.08505
1.08505
1.08505
1.08505
1.08505
1.08505
1.08505
1.08505
1.08505
1.08505
1.08505
1.08505
1.08505
1.08505
1.08505
1.08505
1.08505
1.08505
1.08505
1.08505
1.08505
1.08505
1.11037
1.11037
1.11037
1.11037
1.11037
1.11037
1.11037
1.11037
1.11037
1.11037
1.11037
1.11037
1.11037
1.11037
1.11037
1.11037
1.11037
1.11037
1.11037
1.11037
1.11037
1.11037
1.11037
1.11037
1.11037
1.11037
1.11037
1.11037
1.11037
1.11037
1.11037
1.11037
1.11037
1.11037
1.11037
1.11037
1.11037
1.11037
1.11037
1.11037
1.13987
1.13987
1.13987
1.13987
1.13987
1.13987
1.13987
1.13987
1.13987
1.13987
1.13987
1.13987
1.13987
1.13987
1.13987
1.13987
1.13987
1.13987
1.13987
1.13987
1.13987
1.13987
1.13987
1.13987
1.13987
1.13987
1.13987
1.13987
1.13987
1.13987
1.13987
1.13987
1.13987
1.13987
1.13987
1.13987
1.13987
1.13987
1.13987
1.13987
1.17438
1.17438
1.17438
1.17438
1.17438
1.17438
1.17438
1.17438
1.17438
1.17438
1.17438
1.17438
1.17438
1.17438
1.17438
1.17438
1.17438
1.17438
1.17438
1.17438
1.17438
1.17438
1.17438
1.17438
1.17438
1.17438
1.17438
1.17438
1.17438
1.17438
1.17438
1.17438
1.17438
1.17438
1.17438
1.17438
1.17438
1.17438
1.17438
1.17438
1.21503
1.21503
1.21503
1.21503
1.21503
1.21503
1.21503
1.21503
1.21503
1.21503
1.21503
1.21503
1.21503
1.21503
1.21503
1.21503
1.21503
1.21503
1.21503
1.21503
1.21503
1.21503
1.21503
1.21503
1.21503
1.21503
1.21503
1.21503
1.21503
1.21503
1.21503
1.21503
1.21503
1.21503
1.21503
1.21503
1.21503
1.21503
1.21503
1.21503
1.26338
1.26338
1.26338
1.26338
1.26338
1.26338
1.26338
1.26338
1.26338
1.26338
1.26338
1.26338
1.26338
1.26338
1.26338
1.26338
1.26338
1.26338
1.26338
1.26338
1.26338
1.26338
1.26338
1.26338
1.26338
1.26338
1.26338
1.26338
1.26338
1.26338
1.26338
1.26338
1.26338
1.26338
1.26338
1.26338
1.26338
1.26338
1.26338
1.26338
1.32159
1.32159
1.32159
1.32159
1.32159
1.32159
1.32159
1.32159
1.32159
1.32159
1.32159
1.32159
1.32159
1.32159
1.32159
1.32159
1.32159
1.32159
1.32159
1.32159
1.32159
1.32159
1.32159
1.32159
1.32159
1.32159
1.32159
1.32159
1.32159
1.32159
1.32159
1.32159
1.32159
1.32159
1.32159
1.32159
1.32159
1.32159
1.32159
1.32159
1.39289
1.39289
1.39289
1.39289
1.39289
1.39289
1.39289
1.39289
1.39289
1.39289
1.39289
1.39289
1.39289
1.39289
1.39289
1.39289
1.39289
1.39289
1.39289
1.39289
1.39289
1.39289
1.39289
1.39289
1.39289
1.39289
1.39289
1.39289
1.39289
1.39289
1.39289
1.39289
1.39289
1.39289
1.39289
1.39289
1.39289
1.39289
1.39289
1.39289
1.48222
1.48222
1.48222
1.48222
1.48222
1.48222
1.48222
1.48222
1.48222
1.48222
1.48222
1.48222
1.48222
1.48222
1.48222
1.48222
1.48222
1.48222
1.48222
1.48222
1.48222
1.48222
1.48222
1.48222
1.48222
1.48222
1.48222
1.48222
1.48222
1.48222
1.48222
1.48222
1.48222
1.48222
1.48222
1.48222
1.48222
1.48222
1.48222
1.48222
1.59764
1.59764
1.59764
1.59764
1.59764
1.59764
1.59764
1.59764
1.59764
1.59764
1.59764
1.59764
1.59764
1.59764
1.59764
1.59764
1.59764
1.59764
1.59764
1.59764
1.59764
1.59764
1.59764
1.59764
1.59764
1.59764
1.59764
1.59764
1.59764
1.59764
1.59764
1.59764
1.59764
1.59764
1.59764
1.59764
1.59764
1.59764
1.59764
1.59764
1.75344
1.75344
1.75344
1.75344
1.75344
1.75344
1.75344
1.75344
1.75344
1.75344
1.75344
1.75344
1.75344
1.75344
1.75344
1.75344
1.75344
1.75344
1.75344
1.75344
1.75344
1.75344
1.75344
1.75344
1.75344
1.75344
1.75344
1.75344
1.75344
1.75344
1.75344
1.75344
1.75344
1.75344
1.75344
1.75344
1.75344
1.75344
1.75344
1.75344
1.97802
1.97802
1.97802
1.97802
1.97802
1.97802
1.97802
1.97802
1.97802
1.97802
1.97802
1.97802
1.97802
1.97802
1.97802
1.97802
1.97802
1.97802
1.97802
1.97802
1.97802
1.97802
1.97802
1.97802
1.97802
1.97802
1.97802
1.97802
1.97802
1.97802
1.97802
1.97802
1.97802
1.97802
1.97802
1.97802
1.97802
1.97802
1.97802
1.97802
2.339
2.339
2.339
2.339
2.339
2.339
2.339
2.339
2.339
2.339
2.339
2.339
2.339
2.339
2.339
2.339
2.339
2.339
2.339
2.339
2.339
2.339
2.339
2.339
2.339
2.339
2.339
2.339
2.339
2.339
2.339
2.339
2.339
2.339
2.339
2.339
2.339
2.339
2.339
2.339
3.05927
3.05927
3.05927
3.05927
3.05927
3.05927
3.05927
3.05927
3.05927
3.05927
3.05927
3.05927
3.05927
3.05927
3.05927
3.05927
3.05927
3.05927
3.05927
3.05927
3.05927
3.05927
3.05927
3.05927
3.05927
3.05927
3.05927
3.05927
3.05927
3.05927
3.05927
3.05927
3.05927
3.05927
3.05927
3.05927
3.05927
3.05927
3.05927
3.05927
5.413
5.413
5.413
5.413
5.413
5.413
5.413
5.413
5.413
5.413
5.413
5.413
5.413
5.413
5.413
5.413
5.413
5.413
5.413
5.413
5.413
5.413
5.413
5.413
5.413
5.413
5.413
5.413
5.413
5.413
5.413
5.413
5.413
5.413
5.413
5.413
5.413
5.413
5.413
5.413
